Nx := 512
Ny := 128
c := 5e-9
setgridsize(Nx, Ny, 1)
setcellsize(c, c, c)
ext_makegrains(30e-9, 256, 0)
Ku1 = 0.4e6
Aex = 10e-12
Msat = 600e3
alpha = 1
delta := 0.2
for i := 0; i < 256; i++ {
	AnisU.SetRegion(i, vector(delta*(rand()-0.5), delta*(rand()-0.5), 1))
	for j := i + 1; j < 256; j++ {
		ext_scaleExchange(i, j, 0.1)
	}
}
m = uniform(0, 0, 1)
mask := newslice(3, Nx, Ny, 1)
for i := 0; i < Nx; i++ {
	for j := 0; j < Ny; j++ {
		r := index2coord(i, j, 0)
		x := r.X()
		y := r.Y()
		B := exp(-pow((x-500e-9)/100e-9, 2)) * exp(-pow(y/250e-9, 2))
		mask.set(2, i, j, 0, B)
	}
}
f := 0.5e9
A := 1.5
B_ext.add(mask, -A*sin(2*pi*f*t))
autosave(m, 300e-12)
autosave(B_ext, 600e-12)
ShiftMagR = vector(0, 0, 1)
for i := 0; i < 300; i++ {
	run(30e-12)
	Shift(-1)
}
/*calculating demag kernel
*/
/*kernel done
*/
