# t (s)	mx ()	my ()	mz ()
3.0105618006768146e-09	0.9640833139419556	0.13504472374916077	-0.012698507867753506
3.020511981662974e-09	0.9553208947181702	0.16216415166854858	-0.02449745126068592
3.0305084010556248e-09	0.9392064213752747	0.20494401454925537	-0.035453736782073975
3.0404697968825774e-09	0.9141331911087036	0.26023465394973755	-0.045188143849372864
3.0504809561529374e-09	0.878405749797821	0.32500845193862915	-0.053576238453388214
3.060458779409129e-09	0.8314523696899414	0.3950037360191345	-0.060563936829566956
3.0704379181425306e-09	0.7728458642959595	0.4669235348701477	-0.06649293750524521
3.080409672295655e-09	0.702468991279602	0.5376334190368652	-0.07193031907081604
3.0905457878791473e-09	0.6183196306228638	0.605456531047821	-0.07774414867162704
3.100459916255391e-09	0.5225489139556885	0.6648313403129578	-0.08461019396781921
3.110444720162636e-09	0.41082847118377686	0.7136169075965881	-0.09363234043121338
3.120513164429169e-09	0.2809511423110962	0.74555504322052	-0.10549941658973694
3.1304595167350816e-09	0.1359587162733078	0.7523099184036255	-0.11960229277610779
3.1404587439903734e-09	-0.02252325601875782	0.7272129058837891	-0.13452377915382385
3.150400894862621e-09	-0.185968816280365	0.6675496101379395	-0.14807598292827606
3.160466456930036e-09	-0.349805623292923	0.5727663636207581	-0.1590997874736786
3.1704048376900756e-09	-0.5014042258262634	0.4478738605976105	-0.1664685606956482
3.180482455937877e-09	-0.634894847869873	0.29439979791641235	-0.16911065578460693
3.190479831590501e-09	-0.7407526969909668	0.1225852519273758	-0.16531410813331604
3.2004301402023376e-09	-0.8155710697174072	-0.060793593525886536	-0.15343143045902252
3.210461220716034e-09	-0.8518421053886414	-0.2453305423259735	-0.13097794353961945
3.2204504407522172e-09	-0.839450478553772	-0.40118086338043213	-0.09630441665649414
3.2304535776000008e-09	-0.7862143516540527	-0.487531840801239	-0.052996404469013214
3.240440799576332e-09	-0.7265438437461853	-0.48583894968032837	-0.012384827248752117
3.2504517366098313e-09	-0.6838464736938477	-0.41602885723114014	0.019601136445999146
3.2603988213143637e-09	-0.6617755889892578	-0.31000804901123047	0.04224957525730133
3.2704334913577614e-09	-0.6557770371437073	-0.1981162428855896	0.05593608692288399
3.280417024112704e-09	-0.6625334024429321	-0.1079585999250412	0.06261851638555527
3.290433526030761e-09	-0.6859683394432068	-0.04675519838929176	0.06637988984584808
3.3004068581937153e-09	-0.7417780160903931	-0.009459834545850754	0.06960652768611908
3.310396593436195e-09	-0.8283184766769409	0.024047009646892548	0.07322416454553604
3.32043824433112e-09	-0.9124113917350769	0.08767959475517273	0.07665574550628662
3.3304200370908553e-09	-0.9325705766677856	0.18421350419521332	0.07401920855045319
3.340416623283567e-09	-0.8658685684204102	0.2601502239704132	0.06338474154472351
3.350422470862105e-09	-0.7718342542648315	0.29006117582321167	0.049568019807338715
3.3604235452855864e-09	-0.7038068771362305	0.3004716634750366	0.03576941043138504
3.3704390672199833e-09	-0.6773122549057007	0.31591320037841797	0.021971575915813446
3.380462754630423e-09	-0.6861822605133057	0.34647804498672485	0.0068318527191877365
3.3904075700180754e-09	-0.7220637202262878	0.3854696452617645	-0.01029197033494711
3.400492020406922e-09	-0.7781988382339478	0.4079008996486664	-0.029977746307849884
3.4104697656127425e-09	-0.8391015529632568	0.38638919591903687	-0.05055579915642738
3.4204483290504814e-09	-0.8901031017303467	0.3160880208015442	-0.06890907138586044
3.4304102753427787e-09	-0.9169884324073792	0.2090553194284439	-0.08120527863502502
3.440460427543385e-09	-0.9152347445487976	0.084171362221241	-0.08454449474811554
3.4504648161010404e-09	-0.8940969705581665	-0.03136138617992401	-0.0770820900797844
3.460441628144155e-09	-0.8699154853820801	-0.12577778100967407	-0.06083869934082031
3.470398425556136e-09	-0.8536102175712585	-0.20027360320091248	-0.03834839537739754
3.4803998911973963e-09	-0.8555299043655396	-0.2509649395942688	-0.01150148082524538
3.4904380193256737e-09	-0.8811832666397095	-0.26554182171821594	0.018492523580789566
3.500426243139198e-09	-0.9193106889724731	-0.22633302211761475	0.04767166078090668
3.5104289323870594e-09	-0.9441981911659241	-0.13356220722198486	0.06966815888881683
3.520398827090607e-09	-0.9411016702651978	-0.013037282042205334	0.08141803741455078
3.5304327883356696e-09	-0.9182780385017395	0.11343549191951752	0.08315226435661316
3.540432377736608e-09	-0.8845387101173401	0.23305392265319824	0.07577507942914963
3.5504765896489047e-09	-0.8504664897918701	0.33742067217826843	0.0597987100481987
3.56049107425073e-09	-0.8293456435203552	0.4155593812465668	0.03632939234375954
3.5704536231496947e-09	-0.8294373750686646	0.45786401629447937	0.007901967503130436
3.5804889705338314e-09	-0.8514962792396545	0.45629817247390747	-0.022004786878824234
3.5904446394548113e-09	-0.885026752948761	0.40615347027778625	-0.048697665333747864
3.600405126693181e-09	-0.912653923034668	0.310988187789917	-0.06832728534936905
3.6104086492314215e-09	-0.9225245118141174	0.1879928857088089	-0.07684841752052307
3.6204720874381116e-09	-0.9153681397438049	0.061516281217336655	-0.07253219187259674
3.63050352307308e-09	-0.9012372493743896	-0.04419468343257904	-0.057028450071811676
3.6404112152664208e-09	-0.8937524557113647	-0.11495890468358994	-0.034111760556697845
3.6504898874448395e-09	-0.9015799164772034	-0.14805632829666138	-0.007107989862561226
3.660448463706517e-09	-0.9253839254379272	-0.1399478316307068	0.019595349207520485
3.6704595523863954e-09	-0.9544451236724854	-0.08897536993026733	0.04276557266712189
3.68040336543194e-09	-0.9710597991943359	-0.0026428084820508957	0.057639867067337036
3.6904493305054263e-09	-0.9664279222488403	0.10083474218845367	0.06152597814798355
3.7005274284249747e-09	-0.9457270503044128	0.19938898086547852	0.0548388734459877
3.7104870431522217e-09	-0.9220544695854187	0.2781054973602295	0.040481578558683395
3.72053728639506e-09	-0.9072939157485962	0.33063459396362305	0.020797140896320343
3.730499633414657e-09	-0.9076873660087585	0.34942054748535156	-0.0018758205696940422
3.740438409333379e-09	-0.9217736124992371	0.3303549885749817	-0.02528129331767559
3.750517170007519e-09	-0.9422937631607056	0.27135151624679565	-0.04623799026012421
3.760450020733137e-09	-0.9607502222061157	0.18067875504493713	-0.06027204543352127
3.7704927468579204e-09	-0.9727088212966919	0.07182437181472778	-0.06462135910987854
3.78041698010573e-09	-0.9751204252243042	-0.033497877418994904	-0.057569943368434906
3.790457563618034e-09	-0.9691553115844727	-0.11792813986539841	-0.03938409686088562
3.800514072078942e-09	-0.9612681865692139	-0.1640925258398056	-0.013434634543955326
3.810501169732622e-09	-0.9593839049339294	-0.16410623490810394	0.01476664375513792
3.82051399321208e-09	-0.9657489061355591	-0.11826249957084656	0.04027166962623596
3.8304582779352325e-09	-0.9746364951133728	-0.034361083060503006	0.05855080112814903
3.840529432539904e-09	-0.9762313365936279	0.07480171322822571	0.06678204238414764
3.8504815564507666e-09	-0.965579628944397	0.18697279691696167	0.06378600001335144
3.860401473577083e-09	-0.9464462995529175	0.2841813266277313	0.051068015396595
3.870450574212836e-09	-0.9266054630279541	0.3535941243171692	0.031180398538708687
3.88041156333216e-09	-0.91449373960495	0.3855403959751129	0.007983976975083351
3.890492525872181e-09	-0.9155140519142151	0.37851932644844055	-0.015572422184050083
3.900517046837106e-09	-0.9293879270553589	0.3350412845611572	-0.03566373139619827
3.910473138607353e-09	-0.9483773708343506	0.26221951842308044	-0.049389079213142395
3.920423238884345e-09	-0.9636802673339844	0.17164210975170135	-0.05491306260228157
3.930539979286336e-09	-0.9706117510795593	0.0773179903626442	-0.05158277973532677
3.940500915158348e-09	-0.9706717133522034	-0.002093798713758588	-0.04033176600933075
3.950463963044235e-09	-0.9686439633369446	-0.055679380893707275	-0.023180678486824036
3.960473753996575e-09	-0.9692879319190979	-0.07616371661424637	-0.003011230379343033
3.970418605752816e-09	-0.9751876592636108	-0.062052905559539795	0.016625696793198586
3.980552331948168e-09	-0.983641505241394	-0.01625923626124859	0.03285817429423332
3.990556306958251e-09	-0.9880824089050293	0.051216211169958115	0.042225610464811325
4.0005253694678676e-09	-0.9845123291015625	0.1270381361246109	0.04322805255651474
