# t (s)	mx ()	my ()	mz ()
3.0108260700015676e-09	0.9641560912132263	0.13480304181575775	-0.012540044263005257
3.0209349014140207e-09	0.9552851915359497	0.16226713359355927	-0.024530630558729172
3.030988169175405e-09	0.939030647277832	0.20537146925926208	-0.03554303199052811
3.0408853706458573e-09	0.9140670895576477	0.2603663504123688	-0.04520776867866516
3.0508103937999586e-09	0.8786711692810059	0.3245697617530823	-0.053526680916547775
3.060893992058585e-09	0.8312334418296814	0.3952995538711548	-0.06059018522500992
3.0709168508372646e-09	0.7722956538200378	0.4675348997116089	-0.06654021888971329
3.0808763953666635e-09	0.7019106149673462	0.5381379723548889	-0.07196982949972153
3.09084833850342e-09	0.6191378831863403	0.6048713326454163	-0.07768759876489639
3.1008369678149426e-09	0.5227242112159729	0.6647369265556335	-0.08459678292274475
3.110954310943762e-09	0.40943729877471924	0.7140945196151733	-0.09375201165676117
3.120857311715966e-09	0.28163766860961914	0.7454504370689392	-0.10543341934680939
3.130807112557027e-09	0.13666969537734985	0.7523453235626221	-0.11953254044055939
3.140809881773695e-09	-0.021824149414896965	0.7273921966552734	-0.13446044921875
3.1508541604848784e-09	-0.18694235384464264	0.6670882105827332	-0.14814859628677368
3.160822562839416e-09	-0.34919649362564087	0.5731838941574097	-0.1590626835823059
3.1708516780815557e-09	-0.5021583437919617	0.447135329246521	-0.166494220495224
3.1808402444744253e-09	-0.6344539523124695	0.29499679803848267	-0.16910932958126068
3.1908382594783946e-09	-0.7404218316078186	0.12323419749736786	-0.16533854603767395
3.200790512014832e-09	-0.8153755068778992	-0.06014805659651756	-0.15348580479621887
3.210823245685346e-09	-0.8518037796020508	-0.2447473108768463	-0.13106763362884521
3.2208123095492138e-09	-0.8395790457725525	-0.40074825286865234	-0.09643476456403732
3.2308128463036533e-09	-0.7864463329315186	-0.48737069964408875	-0.05314940959215164
3.2407985004759107e-09	-0.7267522215843201	-0.48597297072410583	-0.012519003823399544
3.250806872790845e-09	-0.6839854121208191	-0.41638195514678955	0.019493380561470985
3.260842460940466e-09	-0.6617226004600525	-0.30943337082862854	0.042337384074926376
3.2708739910093275e-09	-0.6557914018630981	-0.1976316124200821	0.05597745627164841
3.2808495513595182e-09	-0.6625919938087463	-0.10766968131065369	0.06263327598571777
3.2907943846357977e-09	-0.6858512759208679	-0.04691682010889053	0.06636632978916168
3.3008332025263203e-09	-0.7420230507850647	-0.009365342557430267	0.0696149691939354
3.3108192812906533e-09	-0.8285901546478271	0.024165764451026917	0.07323428243398666
3.320795024322893e-09	-0.9121798276901245	0.08735714107751846	0.07664860039949417
3.3308397283741826e-09	-0.9325020909309387	0.18445593118667603	0.07399934530258179
3.3408371989545775e-09	-0.8656283617019653	0.2602788805961609	0.06334882974624634
3.3508489471478576e-09	-0.7715619802474976	0.2901056110858917	0.04952109977602959
3.3608531104670874e-09	-0.7036466598510742	0.3005041778087616	0.03571925312280655
3.370867933769522e-09	-0.6772974729537964	0.3159869909286499	0.02191963605582714
3.3807928716285317e-09	-0.6860471963882446	0.34623366594314575	0.006932334043085575
3.3908382548443015e-09	-0.7222583293914795	0.38559868931770325	-0.01036159135401249
3.4008213953784893e-09	-0.7778294086456299	0.4078722894191742	-0.029847826808691025
3.4108107767440855e-09	-0.8388137221336365	0.3866209089756012	-0.05045069754123688
3.420791081710471e-09	-0.8899091482162476	0.316531777381897	-0.06882874667644501
3.430832372083915e-09	-0.9170258045196533	0.20868724584579468	-0.08122760057449341
3.4407995763224015e-09	-0.9153029918670654	0.08482357114553452	-0.084552101790905
3.450805002546052e-09	-0.8942194581031799	-0.03081420063972473	-0.07714205980300903
3.4608679045805284e-09	-0.8698394298553467	-0.12606187164783478	-0.06076626479625702
3.4708257484883018e-09	-0.8535863161087036	-0.2004898339509964	-0.0382552370429039
3.4808263307345106e-09	-0.8555940985679626	-0.25107279419898987	-0.011397874914109707
3.490869815017917e-09	-0.8813443779945374	-0.26547887921333313	0.01861855760216713
3.500855942750633e-09	-0.9194623231887817	-0.22603976726531982	0.047773487865924835
3.510859750597124e-09	-0.9442421197891235	-0.13309073448181152	0.06973204016685486
3.520832235906608e-09	-0.9410325288772583	-0.01248348131775856	0.08144043385982513
3.530868398281018e-09	-0.9181371331214905	0.11399748921394348	0.08313190937042236
3.540868768086401e-09	-0.8843711018562317	0.23356549441814423	0.07571475207805634
3.5508030098305257e-09	-0.8506600260734558	0.33681005239486694	0.05992119759321213
3.5608126831376104e-09	-0.829436182975769	0.41511237621307373	0.03650819510221481
3.5708872310126963e-09	-0.8295055031776428	0.45793378353118896	0.007771531585603952
3.580817587540197e-09	-0.8513248562812805	0.45642971992492676	-0.021825160831212997
3.5908774814097886e-09	-0.8851804137229919	0.40580984950065613	-0.04879708215594292
3.6008398214534045e-09	-0.9127437472343445	0.31046441197395325	-0.06838817149400711
3.610846474910751e-09	-0.9225226640701294	0.18736916780471802	-0.07685267925262451
3.6209119963750194e-09	-0.9152975082397461	0.06092395633459091	-0.07247397303581238
3.630817616816677e-09	-0.9013301730155945	-0.043503694236278534	-0.057173389941453934
3.640843054411641e-09	-0.89374840259552	-0.11516095697879791	-0.033999331295490265
3.6508105996437506e-09	-0.9014685750007629	-0.14794331789016724	-0.007293986156582832
3.660885382516716e-09	-0.9255250692367554	-0.1397804617881775	0.019717290997505188
3.6708946224068423e-09	-0.9545595049858093	-0.08862332999706268	0.04285349324345589
3.6808401039105786e-09	-0.9710840582847595	-0.002153863199055195	0.057681016623973846
3.6908834978198773e-09	-0.9663569927215576	0.10130990296602249	0.0615122988820076
3.700832405123005e-09	-0.9459301233291626	0.19863177835941315	0.05492568388581276
3.7107948006988593e-09	-0.9222272634506226	0.2775537967681885	0.04061812534928322
3.720839417545953e-09	-0.9073672294616699	0.33030346035957336	0.020980587229132652
3.7308096878388165e-09	-0.9076334238052368	0.34940093755722046	-0.001690745702944696
3.7408817026296375e-09	-0.9218835830688477	0.33012470602989197	-0.02540576457977295
3.7508161839843326e-09	-0.9421132206916809	0.27202415466308594	-0.04607491195201874
3.7608921626837634e-09	-0.9608359336853027	0.1801135540008545	-0.06032242253422737
3.7709321090866115e-09	-0.9727458953857422	0.07125123590230942	-0.06461341679096222
3.780859014738103e-09	-0.9751092195510864	-0.03403256833553314	-0.057499874383211136
3.790890829738912e-09	-0.9691228270530701	-0.1182355061173439	-0.039281658828258514
3.80080434804233e-09	-0.9613332748413086	-0.1638665646314621	-0.013708527199923992
3.810791788154932e-09	-0.9593672752380371	-0.1643385887145996	0.014496330171823502
3.820806972598984e-09	-0.9656655788421631	-0.11890470236539841	0.040056467056274414
3.830899308462744e-09	-0.9746732711791992	-0.03384294733405113	0.05862268805503845
3.8408162785084155e-09	-0.9762760400772095	0.07363824546337128	0.06675589084625244
3.850927600780117e-09	-0.9654862880706787	0.18758970499038696	0.06373822689056396
3.860845785601162e-09	-0.9463305473327637	0.28465327620506287	0.050974663347005844
3.8708900295125635e-09	-0.9265198707580566	0.3538520634174347	0.03106912039220333
3.880851419760991e-09	-0.9144627451896667	0.3856034576892853	0.007863355800509453
3.89093092421197e-09	-0.9155536890029907	0.3783918619155884	-0.0156807042658329
3.90079737805877e-09	-0.9291885495185852	0.33569270372390747	-0.0354728102684021
3.910914444299541e-09	-0.9484677910804749	0.2617841362953186	-0.04943832755088806
3.920871102168565e-09	-0.9637388586997986	0.17109405994415283	-0.054917555302381516
3.9308212594955395e-09	-0.9705743789672852	0.07828977704048157	-0.05166250094771385
3.940936812960678e-09	-0.970658004283905	-0.002398608485236764	-0.04026222229003906
3.95090745331733e-09	-0.9686340093612671	-0.05586801841855049	-0.023075999692082405
3.960912041095276e-09	-0.9693045616149902	-0.07616044580936432	-0.002911417977884412
3.9708604215467685e-09	-0.9752321243286133	-0.06187672168016434	0.016720226034522057
3.980807837326491e-09	-0.983543872833252	-0.017026757821440697	0.03267843276262283
3.991006680764523e-09	-0.9880881905555725	0.05167299881577492	0.042252667248249054
4.0009690749628706e-09	-0.9844728112220764	0.12744079530239105	0.043204084038734436
