# t (s)	mx ()	my ()	mz ()
0	0.9669666	0.12527904	0
1.0312355274775617e-11	0.96400225	0.13531445	-0.012877586
2.0362754821232397e-11	0.9550213	0.16303566	-0.02478015
3.068655527446466e-11	0.9380252	0.20781219	-0.036049783
4.058839559648113e-11	0.91256773	0.2633652	-0.045654707
5.0411785972152196e-11	0.877054	0.3272301	-0.053826287
6.032764875595201e-11	0.8300524	0.39689773	-0.060733296
7.027754130450456e-11	0.77132446	0.4686147	-0.06662461
8.027220689294959e-11	0.7004888	0.5394225	-0.072071455
9.032832314825877e-11	0.6167222	0.60659325	-0.077854596
1.0018430625360536e-10	0.52130234	0.66549176	-0.08470436
1.1050698494224024e-10	0.40530753	0.7154989	-0.094109334
1.2016174871424285e-10	0.28034404	0.7456441	-0.105557114
1.3059759008502785e-10	0.1277726	0.75182486	-0.1203978
1.4038617344068089e-10	-0.027777158	0.72582144	-0.13499273
1.5020794546097358e-10	-0.18930312	0.6659769	-0.14832631
1.6003994426068756e-10	-0.34930494	0.5731122	-0.15906888
1.7043375443956841e-10	-0.50749403	0.44191554	-0.16668685
1.8004609082361587e-10	-0.63439894	0.29507875	-0.16910964
1.9033363184118182e-10	-0.7430195	0.11812573	-0.16512178
2.0064323362407977e-10	-0.81899893	-0.07216914	-0.15239231
2.1030817633025928e-10	-0.85214674	-0.24957156	-0.13028574
2.200188482111579e-10	-0.8395938	-0.40069667	-0.09645268
2.3045990170520617e-10	-0.78370994	-0.48909903	-0.051244013
2.4019570448134975e-10	-0.72576016	-0.4852118	-0.011838532
2.5058276058176116e-10	-0.68220586	-0.4110549	0.021023368
2.602997238584418e-10	-0.6613933	-0.30662054	0.04277982
2.7003915787724265e-10	-0.6557814	-0.19811359	0.055933986
2.8049602437392823e-10	-0.6631752	-0.10441285	0.06283028
2.9028141874702674e-10	-0.68688756	-0.045624446	0.06645797
3.0002084063376974e-10	-0.74184525	-0.009442878	0.06960735
3.1024596010908396e-10	-0.8306038	0.025093596	0.07332252
3.203813197423593e-10	-0.91448444	0.09057783	0.07670265
3.3051554354304834e-10	-0.9310969	0.18891738	0.0736576
3.406790137135984e-10	-0.85973454	0.2633583	0.06252129
3.5020536192860084e-10	-0.7703205	0.29031956	0.049319554
3.604634528697847e-10	-0.7018	0.30091578	0.03518047
3.700765954746322e-10	-0.6772988	0.31598338	0.02192649
3.8044069486411126e-10	-0.6870784	0.34788293	0.0062323757
3.9016161667765255e-10	-0.72278535	0.38600495	-0.0105652865
4.0053854987838253e-10	-0.78089666	0.4079952	-0.030879935
4.10173847801633e-10	-0.8396883	0.38592345	-0.05075506
4.2051018183904864e-10	-0.89194864	0.31185535	-0.06962743
4.302215531980999e-10	-0.917235	0.2065823	-0.081375204
4.406021807315885e-10	-0.9144447	0.07753822	-0.084412806
4.5028173630768424e-10	-0.89356476	-0.033578347	-0.0768179
4.6059251542952635e-10	-0.8687373	-0.13037895	-0.059745546
4.701415291381501e-10	-0.8534935	-0.20115094	-0.038000878
4.803161143839384e-10	-0.85598445	-0.25204498	-0.010607167
4.904905412350159e-10	-0.88279045	-0.26502895	0.019863147
5.000104923813767e-10	-0.919243	-0.22645873	0.04761744
5.1020947404366e-10	-0.944382	-0.13157783	0.069963716
5.20407523825968e-10	-0.94049066	-0.007925937	0.081676334
5.306388192036113e-10	-0.9164703	0.120903075	0.082952365
5.402192122929805e-10	-0.8838807	0.23511961	0.07555754
5.505131917811986e-10	-0.84920776	0.34139472	0.058925316
5.601646434952629e-10	-0.82927245	0.4159783	0.03614459
5.705088812370053e-10	-0.8299987	0.4587866	0.0065503563
5.801433662275169e-10	-0.85165554	0.45615798	-0.022150096
5.904774093528174e-10	-0.88646746	0.4028972	-0.049718898
6.001297465193664e-10	-0.91289073	0.30961552	-0.06850125
6.104589960610426e-10	-0.9225247	0.18225527	-0.076926544
6.200578234688487e-10	-0.91539013	0.06173748	-0.07254863
6.303261408039255e-10	-0.9009572	-0.046137407	-0.056588106
6.405852254320673e-10	-0.8937305	-0.11788724	-0.032643743
6.501654014142352e-10	-0.9016991	-0.14813441	-0.0069117374
6.604474138310568e-10	-0.926546	-0.13873714	0.02060686
6.700046205945148e-10	-0.9542918	-0.08938524	0.04264682
6.80193068186203e-10	-0.97117	-0.00079927314	0.05781443
6.903298604655983e-10	-0.9660207	0.10369285	0.061471347
7.004682522498605e-10	-0.94490135	0.20240627	0.054461878
7.106317833842338e-10	-0.9209404	0.2816769	0.039533548
7.201372801262665e-10	-0.90730023	0.33061406	0.02080542
7.303452285488901e-10	-0.9078921	0.34941325	-0.002446875
7.405803903846105e-10	-0.92279667	0.32819632	-0.02650459
7.501487264946716e-10	-0.9423511	0.27113837	-0.04628592
7.604214478482269e-10	-0.96133006	0.1768907	-0.060618956
7.700107140921266e-10	-0.9726436	0.07278216	-0.064631
7.802699463102507e-10	-0.9750577	-0.03593127	-0.05724571
7.905246928631453e-10	-0.96876836	-0.120986685	-0.038323954
8.000921179124681e-10	-0.9612858	-0.16402811	-0.013509514
8.103333157686262e-10	-0.9594451	-0.16356066	0.015394551
8.205646813125001e-10	-0.9661639	-0.115236774	0.04126967
8.301131326517383e-10	-0.9746686	-0.03386458	0.05861871
8.403643759905022e-10	-0.9761222	0.07742401	0.06683631
8.506384596169746e-10	-0.96467185	0.19291687	0.06331275
8.602476401888881e-10	-0.94594085	0.28623202	0.050659776
8.705582132395933e-10	-0.9257557	0.3561237	0.030064464
8.801945731032571e-10	-0.9143869	0.38575524	0.0075591765
8.905281691716544e-10	-0.91588175	0.3773678	-0.016526468
9.001694579172625e-10	-0.9294721	0.3347593	-0.035744466
9.104746212267169e-10	-0.94910675	0.2588606	-0.049773425
9.200589528128673e-10	-0.96371233	0.17135835	-0.054915637
9.30300423405855e-10	-0.97065103	0.07594696	-0.051463872
9.405247374300334e-10	-0.97059214	-0.004928888	-0.03971155
9.500683430863393e-10	-0.96864283	-0.055668812	-0.02318296
9.602998088773067e-10	-0.9693608	-0.07621217	-0.0025598824
9.705388970403876e-10	-0.9756051	-0.060432896	0.017568043
9.800968275604786e-10	-0.9835951	-0.016613845	0.032775827
9.903407953056946e-10	-0.98809314	0.052543003	0.042317394
1e-09	-0.9846119	0.12604514	0.04326937
