# t (s)	mx ()	my ()	mz ()
0	0.9669663	0.12527956	0
1.0430826157501423e-11	0.96393305	0.1355417	-0.01302211
2.0587274258893273e-11	0.9547417	0.16384377	-0.025036689
3.064159810133667e-11	0.93811864	0.207586	-0.036003254
4.0636914112814165e-11	0.91241795	0.26366258	-0.04569844
5.0652907514268364e-11	0.8760455	0.32887703	-0.054009512
6.041483998836084e-11	0.8295878	0.39752325	-0.06078874
7.018992449330746e-11	0.77189225	0.46798444	-0.066575736
8.002836032665652e-11	0.70236063	0.5377315	-0.071938425
9.065069855935762e-11	0.61381775	0.6086462	-0.078055024
1.0065335396990955e-10	0.5164037	0.6680623	-0.085075215
1.1053285299391405e-10	0.40499425	0.7156037	-0.09413643
1.2027817024954614e-10	0.27873796	0.74587977	-0.105710626
1.3058285015786727e-10	0.12799929	0.75183874	-0.12037574
1.4014455882405123e-10	-0.023843294	0.72686476	-0.13464111
1.5041401844137717e-10	-0.19269916	0.6643609	-0.14858124
1.6008042134884487e-10	-0.34994885	0.57266396	-0.15910651
1.7053859248278125e-10	-0.5089934	0.4404341	-0.16673985
1.8033947381211408e-10	-0.637903	0.29028216	-0.16909763
1.901635274037221e-10	-0.7414712	0.12118131	-0.16525213
2.0065767525699991e-10	-0.8190777	-0.0724384	-0.15236712
2.103157835956608e-10	-0.8521554	-0.24970353	-0.13026388
2.2060839775427095e-10	-0.8373459	-0.4081345	-0.09404746
2.3018710070253206e-10	-0.78542084	-0.48803946	-0.052435413
2.4040648720371033e-10	-0.7246533	-0.48431766	-0.011071725
2.506630539963672e-10	-0.68196034	-0.41028723	0.021238467
2.6026348796567147e-10	-0.66144085	-0.30703467	0.042714853
2.7058424261787493e-10	-0.6558413	-0.19248757	0.056442067
2.8020861649652606e-10	-0.6627847	-0.106559135	0.062700756
2.90473255191816e-10	-0.6876251	-0.04473275	0.066521436
3.000614616245952e-10	-0.7421472	-0.0093180565	0.06962034
3.103425270892804e-10	-0.83150744	0.025516378	0.07336177
3.2062775953957763e-10	-0.9159486	0.09272754	0.07673225
3.302780860878091e-10	-0.9318418	0.18663996	0.07383529
3.406380403346572e-10	-0.8601208	0.26316327	0.06257549
3.5026026792290657e-10	-0.7698504	0.29039845	0.049242448
3.605039385925349e-10	-0.70161664	0.30095756	0.035125546
3.700437123012387e-10	-0.67732215	0.3159093	0.021973336
3.802806875895614e-10	-0.68669325	0.34727624	0.0064905295
3.905457230720847e-10	-0.7246497	0.38737547	-0.011275884
4.0016027145649446e-10	-0.7785906	0.40791956	-0.030105637
4.104556875726815e-10	-0.84133756	0.38456568	-0.051323473
4.2005974529740493e-10	-0.8901323	0.31602943	-0.06891868
4.303915412630057e-10	-0.9174286	0.20453654	-0.08151299
4.4063340371078983e-10	-0.914397	0.07715251	-0.08440404
4.501455707244073e-10	-0.8939058	-0.032153107	-0.07698752
4.6035523968487267e-10	-0.8692473	-0.1283848	-0.060222197
4.705909353500393e-10	-0.85311955	-0.20398805	-0.036872014
4.801540961404649e-10	-0.8557503	-0.25148305	-0.0110715125
4.90399475801704e-10	-0.882464	-0.2651393	0.01958488
5.006629518519387e-10	-0.9215756	-0.22185868	0.04933466
5.102649804355332e-10	-0.94443786	-0.13095352	0.070056684
5.205657503244444e-10	-0.9402443	-0.005926657	0.08177379
5.301396831898861e-10	-0.91796964	0.114713274	0.08311806
5.404068626529383e-10	-0.88320464	0.23724028	0.07533378
5.506519562287634e-10	-0.84880865	0.342662	0.0586425
5.602000979719764e-10	-0.82923317	0.41619605	0.036050387
5.704402945403667e-10	-0.829912	0.45865023	0.0067558493
5.800233029590473e-10	-0.85129046	0.45646435	-0.021802586
5.903040768783468e-10	-0.8858881	0.40421918	-0.049307074
6.006036655371492e-10	-0.9137891	0.3042043	-0.06917702
6.102331415979779e-10	-0.92252856	0.18515803	-0.07688892
6.205677593335139e-10	-0.91472256	0.055702183	-0.07200631
6.302187056244939e-10	-0.9010935	-0.045181207	-0.05680361
6.405462917014405e-10	-0.8937303	-0.117690265	-0.032744076
6.501356954275983e-10	-0.9016497	-0.14809684	-0.006992828
6.603678494479769e-10	-0.92631114	-0.13898343	0.020403465
6.705769765970211e-10	-0.95573324	-0.085255615	0.04376722
6.801148195407491e-10	-0.9711231	-0.001573592	0.0577403
6.903425551918797e-10	-0.96600163	0.10382448	0.061468624
7.005888054200465e-10	-0.944605	0.20348197	0.05432524
7.101723955898119e-10	-0.9218861	0.27864408	0.040338855
7.20453646227047e-10	-0.9070706	0.3317532	0.020124026
7.30027919222464e-10	-0.9076307	0.34941152	-0.0016962934
7.402281458849357e-10	-0.92212677	0.32962003	-0.02570369
7.504037907939533e-10	-0.94287294	0.26915997	-0.04674408
7.605780535440603e-10	-0.9615747	0.17526713	-0.060763344
7.700949210918675e-10	-0.9727062	0.07184994	-0.06462061
7.803154476388679e-10	-0.97504574	-0.03637658	-0.057185628
7.90543412161311e-10	-0.96875274	-0.12110936	-0.03828061
8.000926390365438e-10	-0.9612857	-0.16402973	-0.01350796
8.103257995594495e-10	-0.9594433	-0.16357924	0.0153739145
8.205684562467388e-10	-0.9661676	-0.11521084	0.04127817
8.301302931428763e-10	-0.97468036	-0.03369377	0.058642164
8.403745833969472e-10	-0.97611743	0.07754069	0.06683864
8.506237409049678e-10	-0.96469635	0.19275914	0.06332577
8.601902908494382e-10	-0.94606113	0.28574556	0.050757285
8.704409142954506e-10	-0.92595226	0.35554153	0.030325724
8.800065448572289e-10	-0.9145017	0.38552624	0.008008506
8.902595138248196e-10	-0.91564953	0.37809366	-0.01593136
9.005110651483632e-10	-0.9300918	0.3326945	-0.03633181
9.100793099919483e-10	-0.94837666	0.26221514	-0.049388975
9.203277064622788e-10	-0.9640132	0.16880755	-0.054941922
9.305625504705788e-10	-0.97071743	0.073628284	-0.05125958
9.401027252135842e-10	-0.9706697	-0.0020625999	-0.04033676
9.50322420584594e-10	-0.96860665	-0.056619834	-0.022693552
9.605384991747165e-10	-0.9694438	-0.07625132	-0.0020708526
9.700661403546327e-10	-0.9752205	-0.06191973	0.016701408
9.802732727024843e-10	-0.98372626	-0.015584046	0.033006415
9.904889251609485e-10	-0.9881001	0.05364656	0.04239297
1e-09	-0.984612	0.12604477	0.04326924
