# t (s)	mx ()	my ()	mz ()	ext_dwpos (m)	ext_dwspeed (m/s)
7.225193866745145e-10	0.02326602623110912	0.0800609029588922	0.0007275617720769285	6e-09	8.30427544320402
7.325292982334e-10	0.015253223356653432	0.08098249440162382	0.0010698355671427348	0	-599.4058953172237
7.425133721095536e-10	0.023409967095592517	0.08225116454956843	0.001054492567643205	0	-599.4058953172237
7.525132154589698e-10	0.015689712463773074	0.08365461687750327	0.0007222295695729831	-5.999999999999999e-09	-300.2414357642998
7.625248644610226e-10	0.00768043718939685	0.08499321366682967	0.00012807217155945462	-1.2e-08	-599.3018731249741
7.724885963266171e-10	0.02290583580687931	0.08611292680341452	-0.0006554329270932784	-9e-09	301.09200452886694
7.825221035389761e-10	0.013557017175226263	0.08693327811364801	-0.0015857846240646734	-1.5e-08	-597.9962811617232
7.924896437486796e-10	0.011249044790708538	0.08741674598508134	-0.002601945927293515	-1.8e-08	-300.97696491652556
8.02520183665231e-10	0.016054148704805482	0.08759419668153098	-0.003668062377793245	-1.8e-08	-300.97696491652556
8.1249529995992e-10	0.012059697332633294	0.08753048574160535	-0.004749446381873535	-2.1e-08	-149.95759040957742
8.2248566721134e-10	0.015213109341890019	0.08729804124751614	-0.005803716046503392	-2.1e-08	-149.95759040957742
8.324958606906932e-10	0.009610361325699361	0.0869285102158237	-0.006746768240779417	-2.4e-08	-149.99579463710504
8.424842988888767e-10	0.019060603907850922	0.08644542893070045	-0.0074948975534150095	-2.1e-08	300.34725554447186
8.524811008352414e-10	0.011797932919967962	0.08590197196009143	-0.008020411423646687	-2.4e-08	-300.0959723015174
8.625223953401445e-10	0.011751523612449256	0.08538152066499395	-0.008404428071781468	-2.4e-08	-300.0959723015174
8.724830349220901e-10	0.011071261516330377	0.08495862556226326	-0.008788173730493006	-2.4e-08	-300.0959723015174
8.824878548011811e-10	0.00982084430632044	0.08461175910051462	-0.009270898749801098	-2.4e-08	-300.0959723015174
8.924769410409214e-10	0.00807230400316643	0.08424385021529977	-0.009897245320880585	-2.4e-08	-300.0959723015174
9.025098210879649e-10	0.02177531909895251	0.0837215266296417	-0.010649615238983716	-1.8e-08	119.93111096367429
9.124965757913466e-10	0.01916686397728728	0.0828482660557936	-0.011457241416510456	-1.8e-08	119.93111096367429
9.224805740655114e-10	0.016133656622578242	0.08147965197650817	-0.012226546278535224	-1.8e-08	119.93111096367429
9.324855461042665e-10	0.012684021905708597	0.07952377539159526	-0.01283978586817522	-1.8e-08	119.93111096367429
9.42501520272864e-10	0.016826847567229027	0.07715820827948414	-0.013167451876523302	-1.5e-08	75.01556725883738
9.52506904408424e-10	0.012785924351517384	0.07469986803307796	-0.013168852304381869	-1.5e-08	75.01556725883738
9.625210777119917e-10	0.016571332966576625	0.07256040085149652	-0.01283876065644114	-1.1999999999999998e-08	149.8534625014533
9.724860724083331e-10	0.02037135700769704	0.07105873286043064	-0.01226975108874833	-8.999999999999998e-09	301.05384813716216
9.82513987855847e-10	0.016300569052016385	0.07031224985591701	-0.011567335133521758	-8.999999999999998e-09	301.05384813716216
9.92477914826063e-10	0.012450972896752165	0.07034880879265244	-0.010900889707926312	-8.999999999999998e-09	301.05384813716216
1.0024887101350703e-09	0.008848257581215265	0.07100725624020042	-0.010412474858245622	-8.999999999999998e-09	301.05384813716216
1.0124871561491527e-09	0.01350906910259097	0.0720229397587556	-0.01015085541544657	-5.9999999999999975e-09	74.99796804101618
1.0224916154911467e-09	0.010538763509599711	0.07310356219728018	-0.010072328176180995	-5.9999999999999975e-09	74.99796804101618
1.03248663013745e-09	0.01580604367509625	0.07403972263781514	-0.010089071721978527	-2.9999999999999975e-09	150.00394519153122
1.0424835465042706e-09	0.021345711796661542	0.07476500403626428	-0.010092959377935024	2.481541837659083e-24	300.0925375305618
1.0525104310769842e-09	0.011282344274241357	0.07528800225293406	-0.010031897691251979	-2.9999999999999975e-09	-299.19562534548254
1.0625266445132626e-09	0.009528762241293409	0.07571920517126957	-0.009873188850717408	-2.9999999999999975e-09	-299.19562534548254
1.0725082838245505e-09	0.008195856229855063	0.07623003728935746	-0.009529720179429413	-2.9999999999999975e-09	-299.19562534548254
1.0824817926025123e-09	0.01525804431534382	0.07702434329446488	-0.009006598785749076	2.481541837659083e-24	100.09555279778478
1.092493193950384e-09	0.022792006983901516	0.0782064560095706	-0.00838933415041003	3.0000000000000025e-09	299.6583490919355
1.1024962924975344e-09	0.0149156065408827	0.07970861670867875	-0.007817103977648702	2.481541837659083e-24	-299.9070723795482
1.1125026809864517e-09	0.015457032038332867	0.0813049983457138	-0.0073405951335545035	2.481541837659083e-24	-299.9070723795482
1.1225250058847247e-09	0.016431966706762488	0.08271528036512668	-0.006957013395018561	2.481541837659083e-24	-299.9070723795482
1.1324702763813252e-09	0.017780381651346325	0.08365867224369722	-0.006630076499821473	2.481541837659083e-24	-299.9070723795482
1.1425250023761605e-09	0.019486061092401346	0.08395823115326549	-0.00631588937273324	2.481541837659083e-24	-299.9070723795482
1.1524829795579249e-09	0.013527752212547154	0.08358977649914229	-0.006008909522036208	-2.9999999999999975e-09	-60.015979782288994
1.1624813670152976e-09	0.007836270320492483	0.08264654380317002	-0.0057491756350142535	-5.9999999999999975e-09	-300.0483840809563
1.1725225013973955e-09	0.01031025878481763	0.08135256362210087	-0.005511236498738425	-5.9999999999999975e-09	-300.0483840809563
1.1825115513543256e-09	0.02085605475420509	0.08010749797944222	-0.005300682928215137	-2.9999999999999975e-09	149.7739586027986
1.1925265562421547e-09	0.023520932526832426	0.07920381078895383	-0.005148169891311941	-2.9999999999999975e-09	149.7739586027986
1.2024730256294698e-09	0.018220790629948306	0.07883897185384842	-0.005047264231773259	-5.9999999999999975e-09	-150.28950059743687
1.2125172343549874e-09	0.012903872024225348	0.07918276078536389	-0.004997073390030233	-8.999999999999998e-09	-298.6795756621844
1.2224791711177552e-09	0.015427687484354625	0.08016748707861789	-0.005069087407983362	-8.999999999999998e-09	-298.6795756621844
1.2324860636761048e-09	0.009870568022938788	0.0815212592756458	-0.005269606315965268	-1.1999999999999998e-08	-150.23414501457253
1.2424951655193326e-09	0.019995807357765346	0.0828186201918972	-0.0055973718134372675	-8.999999999999998e-09	299.72719300781256
1.2525159059817767e-09	0.013939062991192018	0.0839760747645189	-0.006010614576117055	-1.1999999999999998e-08	-299.3790739560057
1.2624867441325348e-09	0.015471064742382521	0.08472850058603452	-0.0064613457882043085	-1.1999999999999998e-08	-299.3790739560057
1.2725182152207061e-09	0.01661215951297038	0.08505695492725021	-0.0069444294421162345	-1.1999999999999998e-08	-299.3790739560057
1.282481977261561e-09	0.017330884104395646	0.08491015067102893	-0.007436360047933064	-1.1999999999999998e-08	-299.3790739560057
1.2925027692754696e-09	0.009718293759932994	0.08423398089420718	-0.007908157371373183	-1.5e-08	-75.02463941634534
1.3024982695237673e-09	0.009733536441232574	0.08316791229323849	-0.008333213756881539	-1.5e-08	-75.02463941634534
1.3125242669770725e-09	0.009508506255663868	0.08179778218920765	-0.008701928977757855	-1.5e-08	-75.02463941634534
1.3224832208882642e-09	0.017044321316957354	0.08028935272777726	-0.00900398648560965	-1.1999999999999998e-08	100.06520377830805
1.3325063047933303e-09	0.016450558855233947	0.07888257272552626	-0.009193773833425022	-1.1999999999999998e-08	100.06520377830805
1.3424806739616465e-09	0.015680397439228024	0.07779012529398752	-0.00926043912657327	-1.1999999999999998e-08	100.06520377830805
1.3524977722707123e-09	0.022671661149549414	0.07716414351636239	-0.009187594137556565	-8.999999999999998e-09	99.9515189074036
1.3624835523942051e-09	0.013588779788673427	0.07707424324895988	-0.00907616158119198	-1.1999999999999998e-08	-300.42720377370676
1.372475712139611e-09	0.0122886123316121	0.0773918201126273	-0.008992491227977618	-1.1999999999999998e-08	-300.42720377370676
1.382500716927068e-09	0.018804890328950687	0.07789990822592602	-0.009039113726476148	-8.999999999999998e-09	149.87137639173685
1.39247838436241e-09	0.01729296453545121	0.0783046261919593	-0.00920230052510246	-8.999999999999998e-09	149.87137639173685
1.4025196091533715e-09	0.007769961293159405	0.07849947327236245	-0.00942170720638118	-1.1999999999999998e-08	-149.85844201999274
1.4125226704988518e-09	0.022080220100717408	0.07849037712389002	-0.009639063464191739	-5.9999999999999975e-09	599.8163754849869
1.4225305992388011e-09	0.02050563321442848	0.07831679229054117	-0.009790235766710717	-5.9999999999999975e-09	599.8163754849869
1.4324819166469563e-09	0.018976231445676346	0.07807889010736851	-0.0098434823458312	-5.9999999999999975e-09	599.8163754849869
1.4425109910166599e-09	0.009546388871505138	0.07789578463861851	-0.009780437509278072	-8.999999999999998e-09	-100.03894676991017
1.452490280239501e-09	0.01610502460023034	0.07783857744485066	-0.009579395572759001	-5.9999999999999975e-09	300.6226127942474
1.4624898379466644e-09	0.02278144787154977	0.07798896709959482	-0.009274594060118022	-2.9999999999999975e-09	300.01326937199394
1.472506308369367e-09	0.013722764160641377	0.07826367836358591	-0.008923023184081303	-5.9999999999999975e-09	-299.5066998051931
1.4825202873191134e-09	0.012821424913477436	0.07856341919612364	-0.008585322039434108	-5.9999999999999975e-09	-299.5066998051931
1.4925287091176178e-09	0.020115226521991818	0.07877636761198693	-0.008304254841697908	-2.9999999999999975e-09	149.8321823501663
1.502519170171951e-09	0.019725909472340916	0.07884212518531887	-0.008093340741539855	-2.9999999999999975e-09	149.8321823501663
1.5125100026811097e-09	0.011646535108768105	0.0787906637253361	-0.007939345790448025	-5.9999999999999975e-09	-150.14042962069968
1.5224801076695892e-09	0.011744529053280144	0.0787182962841142	-0.007807932027939002	-5.9999999999999975e-09	-150.14042962069968
1.532485876145234e-09	0.0199848067032065	0.07873694338848268	-0.007670768267825298	-2.9999999999999975e-09	150.18116756635777
1.542483919739547e-09	0.020434446377477062	0.07894265278618666	-0.007515294245091233	-2.9999999999999975e-09	150.18116756635777
1.5524798424352143e-09	0.02101319829919003	0.07937235484002422	-0.007352102235129859	-2.9999999999999975e-09	150.18116756635777
1.5625184481094614e-09	0.021705072197343245	0.07998784572641114	-0.007201552924029696	-2.9999999999999975e-09	150.18116756635777
1.5725076184727728e-09	0.01454552216015819	0.08068019148726636	-0.007084818071118055	-5.9999999999999975e-09	-74.95925528298908
1.5824840070077566e-09	0.023372597085618285	0.08132497955185823	-0.007004758699344155	-2.9999999999999975e-09	300.71002041270026
1.5925250569360707e-09	0.016384558717942747	0.08182024967593456	-0.006968774904496505	-5.9999999999999975e-09	-298.7735367733314
1.602508218723315e-09	0.017392296371801067	0.08209350555617005	-0.006965547193061992	-5.9999999999999975e-09	-298.7735367733314
1.6124942768817513e-09	0.010483671170351698	0.0821070133366516	-0.0069830316959538395	-8.999999999999998e-09	-150.23120623441804
1.6225288563835526e-09	0.011541248137715203	0.08187386389105579	-0.007017371551468191	-8.999999999999998e-09	-150.23120623441804
1.632470222785865e-09	0.020529196029033935	0.08144646619483126	-0.007034022240750066	-5.9999999999999975e-09	150.18062295524086
1.6424845256112797e-09	0.021537583678501847	0.08098085709489879	-0.007018119141170769	-5.9999999999999975e-09	150.18062295524086
1.652527397160625e-09	0.014524830317414346	0.080599978617987	-0.006992306924849319	-8.999999999999998e-09	-149.57241453587852
1.6624841637081704e-09	0.015353117069674557	0.08039709660643318	-0.006977263695555306	-8.999999999999998e-09	-149.57241453587852
1.6725144329811992e-09	0.00813016024502841	0.08035316978943507	-0.007025545293634588	-1.1999999999999998e-08	-150.0972944128055
1.682518268489583e-09	0.008744570963784231	0.08042913020930359	-0.007158808132575273	-1.1999999999999998e-08	-150.0972944128055
1.6924746941095833e-09	0.017196702649210794	0.0805243062428201	-0.007374510975897875	-8.999999999999998e-09	150.2986349078325
1.7025107037842987e-09	0.017587948840350223	0.08056240394467214	-0.007627079277209127	-8.999999999999998e-09	150.2986349078325
1.7125228234122616e-09	0.01784278880999092	0.08052665608117549	-0.007879856031922872	-8.999999999999998e-09	150.2986349078325
